9
	Energy:      39.5935911
C         -6.85363       -0.70576       -0.19268
O         -5.42104       -0.70202       -0.17435
H         -7.24069        0.26195        0.13980
H         -7.23984       -1.51890        0.42900
H         -7.17679       -0.87336       -1.22369
C         -4.76282       -0.50863        1.01680
O         -3.53774       -0.50073        1.05849
O         -5.63436       -0.33958        2.06664
O         -4.89511       -0.14728        3.25079
