9
Properties=species:S:1:pos:R:3 Energy:=T 39.5935911=T pbc="F F F"
C       -6.92851841      -0.14136271       0.06716654
O       -6.79344279      -1.48074880       0.61962101
H       -7.06675550       0.58288158       0.87458769
H       -7.84182408      -0.24135944      -0.53813641
H       -6.05750665       0.09943506      -0.54981956
C       -5.72686511      -1.75559336       1.40285681
O       -5.49119545      -2.80758628       1.89581615
O       -4.85213119      -0.50138249       1.58256234
O       -3.80727710      -0.69634539       2.10530997
9
Properties=species:S:1:pos:R:3 Energy:=T 39.5935911=T pbc="F F F"
C       -6.92851841      -0.14136271       0.06716654
O       -6.79344279      -1.48074880       0.61962101
H       -7.06675550       0.58288158       0.87458769
H       -7.84182408      -0.24135944      -0.53813641
H       -6.05750665       0.09943506      -0.54981956
C       -5.72686511      -1.75559336       1.40285681
O       -5.49119545      -2.80758628       1.89581615
O       -4.85213119      -0.50138249       1.58256234
O       -3.74097395      -0.71764268       1.93121233
9
Properties=species:S:1:pos:R:3 Energy:=T 39.5935911=T pbc="F F F"
C       -6.92864385      -0.14126875       0.06716937
O       -6.79356142      -1.48085514       0.61961654
H       -7.06685845       0.58290476       0.87487777
H       -7.84134547      -0.24125769      -0.53817669
H       -6.05772149       0.09935873      -0.55009831
C       -5.72756466      -1.75625721       1.40270553
O       -5.49142672      -2.80799202       1.89596093
O       -4.85112745      -0.50102207       1.58258322
O       -3.69986327      -0.71942374       1.74829577
9
Properties=species:S:1:pos:R:3 Energy:=T 39.5935911=T pbc="F F F"
C       -6.92912796      -0.14210808       0.06848960
O       -6.79883344      -1.48269561       0.61947565
H       -7.06742914       0.58115219       0.87760617
H       -7.83902611      -0.23940941      -0.54060184
H       -6.05996147       0.09759983      -0.55161251
C       -5.73166149      -1.76154984       1.39950425
O       -5.50006287      -2.81217140       1.89697172
O       -4.83948031      -0.49933633       1.58374547
O       -3.67787736      -0.69087193       1.56336105
9
Properties=species:S:1:pos:R:3 Energy:=T 39.5935911=T pbc="F F F"
C       -6.92976411      -0.14215225       0.06810929
O       -6.79940780      -1.48256343       0.61984475
H       -7.06739848       0.58055815       0.87762353
H       -7.83920223      -0.23922372      -0.54070331
H       -6.05985690       0.09721777      -0.55128661
C       -5.73194319      -1.76366228       1.39735075
O       -5.50163766      -2.81214199       1.89762661
O       -4.83689116      -0.49774462       1.58529783
O       -3.68951591      -0.65460685       1.38167850
9
Properties=species:S:1:pos:R:3 Energy:=T 39.5935911=T pbc="F F F"
C       -6.93093771      -0.14343262       0.06759503
O       -6.80768862      -1.48412805       0.62054473
H       -7.06750961       0.57935034       0.87781732
H       -7.84064840      -0.23897783      -0.54178546
H       -6.05988332       0.09588025      -0.55057714
C       -5.73412496      -1.76672690       1.38891122
O       -5.50561641      -2.81086637       1.89972011
O       -4.82615936      -0.49738632       1.58991721
O       -3.72145910      -0.59517576       1.21030534
9
Properties=species:S:1:pos:R:3 Energy:=T 39.5935911=T pbc="F F F"
C       -6.93658978      -0.14475947       0.06600899
O       -6.81533114      -1.48287420       0.62358097
H       -7.06902302       0.57729164       0.87667281
H       -7.84469638      -0.23629777      -0.54578875
H       -6.06248975       0.08924846      -0.54864828
C       -5.73578629      -1.76737812       1.38205896
O       -5.51009085      -2.80871104       1.89844826
O       -4.81125663      -0.50168828       1.59333487
O       -3.77207404      -0.51602111       1.05898814
9
Properties=species:S:1:pos:R:3 Energy:=T 39.5935911=T pbc="F F F"
C       -6.93728826      -0.14498533       0.06589044
O       -6.81661282      -1.48379902       0.62420452
H       -7.06990870       0.57807891       0.87655449
H       -7.84498567      -0.23637706      -0.54567684
H       -6.06236971       0.08912672      -0.54966465
C       -5.73637592      -1.76788849       1.37985510
O       -5.50983856      -2.80766421       1.89829698
O       -4.80930826      -0.50126281       1.59599173
O       -3.85570294      -0.43147537       0.92252145
9
Properties=species:S:1:pos:R:3 Energy:=T 39.5935911=T pbc="F F F"
C       -6.94172317      -0.14513540       0.06394919
O       -6.82526319      -1.48294999       0.62591236
H       -7.07235630       0.57838382       0.87423356
H       -7.84890055      -0.23680341      -0.54690120
H       -6.06595603       0.08679689      -0.55150611
C       -5.73682056      -1.76328827       1.37069266
O       -5.50399692      -2.79825479       1.89751893
O       -4.80060213      -0.51161677       1.60347581
O       -3.95176705      -0.33708369       0.81663172
9
Properties=species:S:1:pos:R:3 Energy:=T 39.5935911=T pbc="F F F"
C       -6.95791126      -0.14240168       0.05613683
O       -6.82359397      -1.47338886       0.62882507
H       -7.09069169       0.58995067       0.85783240
H       -7.87159465      -0.24489252      -0.54461327
H       -6.09168108       0.08711403      -0.57399702
C       -5.73419175      -1.75316627       1.37049899
O       -5.50038026      -2.79601652       1.88304099
O       -4.76876154      -0.52530206       1.62666365
O       -4.02942213      -0.24552813       0.76394702
9
Properties=species:S:1:pos:R:3 Energy:=T 39.5935911=T pbc="F F F"
C       -6.96193387      -0.14140093       0.05420790
O       -6.82334213      -1.47164912       0.62746026
H       -7.08881106       0.59051133       0.85746468
H       -7.87668730      -0.24819074      -0.54519374
H       -6.09616650       0.08830409      -0.57596176
C       -5.73108389      -1.74741673       1.36560643
O       -5.49760735      -2.78775690       1.88458482
O       -4.76916753      -0.53784836       1.62954071
O       -4.15383804      -0.13405628       0.71506651
9
Properties=species:S:1:pos:R:3 Energy:=T 39.5935911=T pbc="F F F"
C       -6.98102753      -0.13946602       0.04224651
O       -6.81114039      -1.46887126       0.61105555
H       -7.09969703       0.59365526       0.84498202
H       -7.90935988      -0.25654096      -0.53422275
H       -6.13377413       0.09877995      -0.61083594
C       -5.72894362      -1.73599959       1.36538339
O       -5.50017355      -2.77947439       1.88344416
O       -4.74197981      -0.55092393       1.65441808
O       -4.23118658      -0.03512607       0.73211445
9
Properties=species:S:1:pos:R:3 Energy:=T 39.5935911=T pbc="F F F"
C       -6.99323240      -0.13926599       0.03291724
O       -6.80086108      -1.46884643       0.59343634
H       -7.09706404       0.59315117       0.83828575
H       -7.93422534      -0.26445576      -0.52215201
H       -6.16252417       0.10681168      -0.63780514
C       -5.72753066      -1.72681175       1.36139190
O       -5.50287207      -2.76818125       1.88804345
O       -4.73169838      -0.56418701       1.66953649
O       -4.32730899       0.07325865       0.76978750
9
Properties=species:S:1:pos:R:3 Energy:=T 39.5935911=T pbc="F F F"
C       -7.00379508      -0.13955504       0.02447499
O       -6.79199601      -1.46895663       0.57857992
H       -7.09470435       0.59308935       0.83123801
H       -7.95501138      -0.26941559      -0.51085903
H       -6.18711090       0.10803855      -0.66290766
C       -5.72819622      -1.71723490       1.36122619
O       -5.50345129      -2.76026188       1.88674923
O       -4.72408656      -0.57190699       1.68668752
O       -4.42789061       0.17775902       0.83187780
9
Properties=species:S:1:pos:R:3 Energy:=T 39.5935911=T pbc="F F F"
C       -7.01199309      -0.13890461       0.01799927
O       -6.78967394      -1.46776529       0.57052498
H       -7.09258191       0.59486058       0.82573603
H       -7.96816111      -0.27613804      -0.50537698
H       -6.20244510       0.10830826      -0.67792268
C       -5.73003506      -1.70913322       1.35931297
O       -5.49945137      -2.75146960       1.88504049
O       -4.71954578      -0.58138829       1.69905688
O       -4.53768162       0.27453036       0.91356446
9
Properties=species:S:1:pos:R:3 Energy:=T 39.5935911=T pbc="F F F"
C       -7.01891867      -0.14098720       0.01278269
O       -6.78623740      -1.46556910       0.56731355
H       -7.09849806       0.59619314       0.81584140
H       -7.97968294      -0.28047499      -0.50240103
H       -6.21714265       0.10780706      -0.69017016
C       -5.73177191      -1.70142079       1.36391271
O       -5.49889974      -2.75010213       1.87770888
O       -4.71331955      -0.58530844       1.71101258
O       -4.63589396       0.36176215       1.01958331
9
Properties=species:S:1:pos:R:3 Energy:=T 39.5935911=T pbc="F F F"
C       -7.02045644      -0.14089765       0.01106434
O       -6.78549291      -1.46541621       0.56798469
H       -7.09912595       0.59718214       0.81629329
H       -7.98017767      -0.28136384      -0.50259882
H       -6.21746012       0.10792116      -0.69074836
C       -5.73164502      -1.70062115       1.36442571
O       -5.49823824      -2.74991844       1.87749554
O       -4.71470825      -0.58728048       1.71079385
O       -4.75172866       0.43611240       1.13170250
9
Properties=species:S:1:pos:R:3 Energy:=T 39.5935911=T pbc="F F F"
C       -7.02478285      -0.14027282       0.00833461
O       -6.78829954      -1.46205334       0.56986457
H       -7.10927714       0.59871371       0.81107827
H       -7.98398401      -0.28774529      -0.50733419
H       -6.22062511       0.10931675      -0.69136799
C       -5.73826898      -1.69414753       1.37141955
O       -5.49066253      -2.74814745       1.86947474
O       -4.71285320      -0.59218588       1.71799053
O       -4.83604587       0.48771621       1.26916212
9
Properties=species:S:1:pos:R:3 Energy:=T 39.5935911=T pbc="F F F"
C       -7.02482598      -0.14061480       0.00792234
O       -6.78902092      -1.46233133       0.57068603
H       -7.11154709       0.59996996       0.81071901
H       -7.98337840      -0.28831715      -0.50832633
H       -6.22129278       0.10945390      -0.69075431
C       -5.73818789      -1.69501428       1.37222788
O       -5.49176036      -2.74909632       1.86819655
O       -4.71024398      -0.59090213       1.71869934
O       -4.92441737       0.52495244       1.41782405
9
Properties=species:S:1:pos:R:3 Energy:=T 39.5935911=T pbc="F F F"
C       -7.02365230      -0.14043720       0.01000394
O       -6.79035821      -1.46057411       0.57350223
H       -7.11572943       0.60061161       0.80928349
H       -7.98149112      -0.28966679      -0.51048518
H       -6.22088706       0.10956391      -0.68967130
C       -5.74079027      -1.69573668       1.37616465
O       -5.49194573      -2.75359688       1.86341511
O       -4.70713530      -0.58738981       1.72025191
O       -4.99415852       0.54110202       1.57650974
9
Properties=species:S:1:pos:R:3 Energy:=T 39.5935911=T pbc="F F F"
C       -7.02061682      -0.13906763       0.01501014
O       -6.79277614      -1.45721101       0.58399405
H       -7.12109498       0.60474903       0.81065215
H       -7.97279457      -0.29176874      -0.51420475
H       -6.21431920       0.10810613      -0.68232105
C       -5.74382689      -1.69830027       1.38596392
O       -5.49134782      -2.76436084       1.85160415
O       -4.70865140      -0.58269366       1.71578990
O       -5.05167104       0.53915399       1.73251753
9
Properties=species:S:1:pos:R:3 Energy:=T 39.5935911=T pbc="F F F"
C       -7.00925877      -0.13781618       0.02784820
O       -6.80441810      -1.45754525       0.60366118
H       -7.11635531       0.60922810       0.82187974
H       -7.95381597      -0.28299034      -0.51587313
H       -6.18869656       0.10355619      -0.65286923
C       -5.74233244      -1.70872704       1.38693702
O       -5.48637136      -2.77459256       1.84864188
O       -4.72074221      -0.57276884       1.68196193
O       -5.12325804       0.51498835       1.87065772
9
Properties=species:S:1:pos:R:3 Energy:=T 39.5935911=T pbc="F F F"
C       -7.00089098      -0.13793521       0.03902947
O       -6.81061393      -1.46113978       0.61023651
H       -7.11121231       0.60382676       0.83655791
H       -7.94056982      -0.27090730      -0.51762904
H       -6.17314055       0.09789501      -0.63542762
C       -5.74723261      -1.71525450       1.39271667
O       -5.48252791      -2.78241861       1.84405441
O       -4.73012704      -0.56280612       1.66385607
O       -5.14907556       0.47705658       2.01326986
9
Properties=species:S:1:pos:R:3 Energy:=T 39.5935911=T pbc="F F F"
C       -6.99059955      -0.13822960       0.05012318
O       -6.81303107      -1.46883731       0.60864775
H       -7.09708491       0.59615941       0.85510784
H       -7.92841858      -0.26042380      -0.50952917
H       -6.15448184       0.09970360      -0.61274090
C       -5.74861029      -1.72415937       1.39115562
O       -5.48399692      -2.78606637       1.85147485
O       -4.74388178      -0.55316979       1.63716989
O       -5.15999705       0.42159936       2.14281345
9
Properties=species:S:1:pos:R:3 Energy:=T 39.5935911=T pbc="F F F"
C       -6.98937163      -0.13800136       0.05206568
O       -6.81259591      -1.46963470       0.60895389
H       -7.09675099       0.59624659       0.85711379
H       -7.92740261      -0.25814012      -0.50997381
H       -6.15423917       0.10021205      -0.61283367
C       -5.74958582      -1.73048030       1.39310572
O       -5.48609089      -2.79204304       1.85150157
O       -4.73969723      -0.54559147       1.63603580
O       -5.11359302       0.34753814       2.29487512
9
Properties=species:S:1:pos:R:3 Energy:=T 39.5935911=T pbc="F F F"
C       -6.98451100      -0.13893613       0.05723454
O       -6.81016432      -1.47093117       0.61039298
H       -7.09328679       0.59415250       0.86186201
H       -7.92225158      -0.25494263      -0.50607342
H       -6.15209157       0.10038991      -0.60978346
C       -5.74740313      -1.74142821       1.39251792
O       -5.49508111      -2.80497432       1.85044297
O       -4.74225016      -0.52991365       1.62935279
O       -5.04929190       0.26588194       2.42435897
9
Properties=species:S:1:pos:R:3 Energy:=T 39.5935911=T pbc="F F F"
C       -6.96941641      -0.14360149       0.07431127
O       -6.81343079      -1.49115475       0.59623953
H       -7.06155618       0.57312543       0.89593969
H       -7.90770167      -0.23005310      -0.49181816
H       -6.12761675       0.09674331      -0.58175945
C       -5.75825938      -1.75717804       1.39218899
O       -5.49296722      -2.81421582       1.85480943
O       -4.77429050      -0.51563188       1.59895168
O       -4.99684910       0.20020646       2.48841896
9
Properties=species:S:1:pos:R:3 Energy:=T 39.5935911=T pbc="F F F"
C       -6.96813237      -0.14239277       0.07450824
O       -6.81016023      -1.48898731       0.59893475
H       -7.06267648       0.57203912       0.89752180
H       -7.90720719      -0.22890936      -0.49105455
H       -6.12783500       0.09763612      -0.58324252
C       -5.75375499      -1.76178330       1.39141353
O       -5.49760093      -2.81905759       1.85773637
O       -4.77385959      -0.50998321       1.59486318
O       -4.88853839       0.09498226       2.58073292
9
Properties=species:S:1:pos:R:3 Energy:=T 39.5935911=T pbc="F F F"
C       -6.96786122      -0.14247082       0.07480317
O       -6.81007892      -1.48877577       0.59903581
H       -7.06264803       0.57207203       0.89756491
H       -7.90704263      -0.22893227      -0.49089525
H       -6.12784228       0.09775676      -0.58326210
C       -5.75306706      -1.76195037       1.39130357
O       -5.49805288      -2.81955630       1.85794992
O       -4.77427371      -0.50947700       1.59472733
O       -4.76187733      -0.01525097       2.64600938
9
Properties=species:S:1:pos:R:3 Energy:=T 39.5935911=T pbc="F F F"
C       -6.95753243      -0.13921314       0.08289047
O       -6.80187992      -1.48613977       0.60654466
H       -7.05584531       0.57808467       0.90386233
H       -7.89698104      -0.23390910      -0.47946638
H       -6.12198904       0.10285128      -0.58075860
C       -5.74041383      -1.76666037       1.39103438
O       -5.50176090      -2.82678564       1.86288917
O       -4.79993288      -0.51213195       1.57139339
O       -4.64991831      -0.12515600       2.66461728
9
Properties=species:S:1:pos:R:3 Energy:=T 39.5935911=T pbc="F F F"
C       -6.95823039      -0.13931978       0.08241236
O       -6.79914987      -1.48475514       0.60919124
H       -7.05366260       0.57598972       0.90371368
H       -7.89889013      -0.23046747      -0.48090168
H       -6.12165575       0.10278347      -0.57855561
C       -5.73581755      -1.76734527       1.39256388
O       -5.50203097      -2.82814646       1.86474967
O       -4.80246971      -0.51112310       1.56682246
O       -4.50868222      -0.23639875       2.66664612
9
Properties=species:S:1:pos:R:3 Energy:=T 39.5935911=T pbc="F F F"
C       -6.95467834      -0.13844826       0.08492801
O       -6.79577780      -1.48408234       0.61334398
H       -7.05181456       0.57674490       0.90597991
H       -7.89533601      -0.22896169      -0.47800705
H       -6.11994653       0.10305294      -0.57837831
C       -5.72779380      -1.76634846       1.39019354
O       -5.49997798      -2.82572994       1.87002366
O       -4.81692564      -0.51459376       1.55722024
O       -4.37108297      -0.34590284       2.63306968
9
Properties=species:S:1:pos:R:3 Energy:=T 39.5935911=T pbc="F F F"
C       -6.95468487      -0.13869462       0.08493303
O       -6.79614911      -1.48374980       0.61307706
H       -7.05163059       0.57693280       0.90622237
H       -7.89523706      -0.22896046      -0.47788106
H       -6.11968991       0.10312235      -0.57835044
C       -5.72736555      -1.76623754       1.39035629
O       -5.49960028      -2.82596369       1.87040024
O       -4.81750325      -0.51463813       1.55655395
O       -4.22665267      -0.44337428       2.57244872
9
Properties=species:S:1:pos:R:3 Energy:=T 39.5935911=T pbc="F F F"
C       -6.95283014      -0.13784362       0.08596306
O       -6.79376544      -1.48301147       0.61568703
H       -7.04939546       0.57809715       0.90748518
H       -7.89395053      -0.22854768      -0.47650333
H       -6.11737473       0.10373941      -0.57735350
C       -5.72225762      -1.76571541       1.38968977
O       -5.49547597      -2.82353569       1.87440290
O       -4.82917022      -0.51713936       1.54975556
O       -4.09817757      -0.53462188       2.47875060
9
Properties=species:S:1:pos:R:3 Energy:=T 39.5935911=T pbc="F F F"
C       -6.95283014      -0.13784362       0.08596306
O       -6.79376544      -1.48301147       0.61568703
H       -7.04939546       0.57809715       0.90748518
H       -7.89395053      -0.22854768      -0.47650333
H       -6.11737473       0.10373941      -0.57735350
C       -5.72225762      -1.76571541       1.38968977
O       -5.49547597      -2.82353569       1.87440290
O       -4.82917022      -0.51713936       1.54975556
O       -3.97402661      -0.60832844       2.36099020
9
Properties=species:S:1:pos:R:3 Energy:=T 39.5935911=T pbc="F F F"
C       -6.95266026      -0.13778970       0.08614041
O       -6.79393099      -1.48302294       0.61560777
H       -7.04928151       0.57811760       0.90746177
H       -7.89374565      -0.22853115      -0.47635413
H       -6.11723087       0.10375987      -0.57725967
C       -5.72221945      -1.76547507       1.38942027
O       -5.49504991      -2.82367610       1.87480735
O       -4.82982701      -0.51717685       1.54947369
O       -3.86725129      -0.66700924       2.22000196
