14
Properties=species:S:1:pos:R:3:momenta:R:3 Energy:=T 18.9413423=T pbc="F F F"
C       -3.60495124       1.44682921      -0.48242343      -1.67841675       0.05398179       0.19825159
C       -2.94653264       0.29209905      -0.44805681      -0.46365706      -1.45333599       0.01856655
C       -1.54149981       0.20636025      -0.48852826      -4.07056160       5.67855891       0.11262419
H       -3.67248586      -0.59752122      -0.20641019       0.76453713       0.49338035      -0.20257264
C       -0.86593815       1.29607381      -0.40396940       3.60139676       2.46942378      -0.13623800
H       -1.33550155      -0.56477924      -0.55618485       2.91755574      -9.14264157      -0.88615827
C       -1.48901839       2.54812625      -0.44100433      -1.10710187      -0.93571295       0.46888437
H        0.41666184       1.35678817      -0.67316497      -1.90321966      -0.19117623       0.52436002
C       -2.94111101       2.63459407      -0.47395551       4.40185255      -8.66725301      -0.53507364
H       -0.89503485       3.43625495      -0.45757036       0.21706037       0.35445220       0.06551287
H       -3.15698595       3.38603845      -0.44751798      -3.38767128       9.80503521       0.28303201
H       -4.65310740       1.28643265      -0.10662128       0.01706547       0.25297481      -0.16635487
O       10.26978806       6.43912423      -0.39020906      -1.11995409       1.34457095       0.29414580
H       10.67236127       5.69472074      -0.24061447       0.97251947      -2.19118346       0.60744972
14
Properties=species:S:1:pos:R:3:momenta:R:3 Energy:=T 18.9413423=T pbc="F F F"
C       -3.88900277       1.47082554      -0.39973846      -6.55865373      -2.41918703       1.77786447
C       -3.03862666      -0.00026078      -0.40849286     -10.86636551     -11.83957866       0.48388853
C       -2.23457832       1.11777773      -0.42293310    -139.65475115    -179.95010206     207.66421916
H       -2.03922467       0.27139340      -0.76236190       5.55300522     -14.24256323      -5.91465710
C       -0.24341926       1.77365771      -0.50215854       8.17892289       8.78488722      -1.06447650
H        4.62182865     -18.58280555      -2.19600614       6.09342700     -18.40437873      -1.70730440
C       -1.67189186       2.45292005      -0.40646341       7.07703274      10.59860491       1.07656434
H       -3.44795483       0.97328307       0.53631914      -6.87127912       0.52337146       4.22052157
C       -2.15641373       1.23376598      -0.54360485     143.62169997     184.66281796    -206.38572796
H       -0.44585994       4.21981141      -0.36234272       0.16598357       0.42130861       0.08551160
H      -10.01572548      22.73050127       0.09979205      -7.02786435      19.75022151       0.54905941
H       -4.67076720       2.02481961      -0.75087670      -0.78949768       1.08631591      -1.07325329
O       10.12481330       6.65947670      -0.39905697      -2.43257042       3.61217832      -0.17679127
H       12.73762744       1.46107211       0.76755170       2.10323651      -4.33603682       1.03240559
14
Properties=species:S:1:pos:R:3:momenta:R:3 Energy:=T 18.9413423=T pbc="F F F"
C       -4.67085494       1.05156409      -0.19006880      -9.27280422      -2.14464295       2.65082154
C       -4.72607436      -1.63877587      -0.37720045     -20.40408829     -22.84263479       0.04185036
C      -24.37571261     -29.22829952      33.47000594    -269.42164138    -369.27535131     412.40190231
H        7.16888790     -28.38437692     -11.75920146       9.38777656     -29.22653613     -11.24391344
C        0.46439097       2.73064145      -0.56888668       7.86497324      14.01257536      -0.33787980
H       10.54887189     -36.41304527      -3.85691419       6.05846827     -18.21347267      -1.65100645
C       -0.32491702       4.27417958      -0.25786324      90.42045232      14.53527353       5.92590004
H      -12.98374523       2.38960729       7.54069411      -9.83775967       1.51238250       7.25461253
C       20.54875793      32.83366551     -34.23221821     276.18977866     384.51883588    -409.92303632
H       -0.56668375       4.28498015      -0.27436613     -73.46325533       5.32674453      -4.46604951
H      -16.81346308      41.88768301       0.62482325      -6.94566429      19.55756113       0.54363699
H       -6.18803451       3.41027125      -2.20435225      -1.54726741       1.43202896      -1.47387667
O        9.97099655       6.87440530      -0.41162094      -2.80548781       3.30405267      -0.20156569
H       14.78147319      -2.73731781       1.76575109       2.09200920      -4.28686330       1.02261605
14
Properties=species:S:1:pos:R:3:momenta:R:3 Energy:=T 18.9413423=T pbc="F F F"
C       -5.39790350       1.12493225       0.03216773      -9.43667762       4.17593037       3.23629614
C       -6.38302772      -3.74156937      -0.40191430     -21.36451928     -30.22247908      -0.60262550
C      -46.30150023     -59.28097842      67.02806367    -266.74837316    -365.70293273     408.32452893
H       16.22037512     -56.67029343     -22.69522869       9.21842925     -28.86992610     -11.18079138
C        1.05185614       4.07066528      -0.55925647      11.18333327      18.10388573       0.06966226
H       16.43349782     -54.08114690      -5.42943499       5.98921918     -18.01534010      -1.59610608
C       13.11864293       4.83695184       0.55830744     164.71183128       5.13425358      10.46831505
H      -22.64307666       3.91716601      14.67016533      -9.80523304       1.54702626       7.20131622
C       43.02416693      64.12195641     -67.59041845     273.46565488     380.64272391    -405.90681197
H     -143.61907572      14.60373666      -9.07295153    -146.09349286      10.54645160      -8.97221001
H      -23.57082920      60.83729567       1.16979315      -6.88419450      19.36742322       0.55864326
H       -7.66608457       4.81492468      -3.62647505      -1.51737135       1.43710945      -1.45853863
O        9.78722691       7.06684746      -0.42326443      -6.37146872       4.48160392      -0.87514316
H       16.79927168      -6.87159011       2.75016035       1.98027573      -4.36305893       1.02443202
14
Properties=species:S:1:pos:R:3:momenta:R:3 Energy:=T 18.9413423=T pbc="F F F"
C       -6.21267805       1.74246431       0.34515514      -7.75185864       9.37418666       4.09029543
C       -8.22011232      -6.58230226      -0.47942685     -22.19692773     -35.66697414      -1.03601442
C      -68.01009715     -89.03985291     100.25088748    -264.10586325    -362.07602808     404.22388714
H       25.14220790     -84.65435493     -33.56738743       9.09501708     -28.59060777     -11.11083835
C        2.29080268       5.69327365      -0.56298240      11.16304987      18.38132910      -0.04001149
H       22.25394172     -71.54936840      -6.96797936       5.93074624     -17.85068835      -1.55429239
C       26.61229840       5.12197135       1.45583617     164.53283314       3.43920662      10.95627301
H      -32.07503371       5.39962501      21.58466361      -9.61638929       1.52157343       7.05668634
C       65.26800386      95.09439199    -100.61847860     270.55786616     376.83578382    -401.90940857
H     -285.27726681      24.79190989     -17.77706097    -144.63957245      10.39268200      -8.90476019
H      -30.25511844      79.60079007       1.70053889      -6.83323762      19.15909027       0.53253368
H       -9.13929940       6.21808266      -5.02522108      -1.42014944       1.86352452      -1.70283363
O        9.18625960       7.42082283      -0.52011701      -8.77712644       6.14990951      -1.57404602
H       18.63629387     -11.24431795       3.75551761       1.81406485      -4.60692343       1.04181905
14
Properties=species:S:1:pos:R:3:momenta:R:3 Energy:=T 18.9413423=T pbc="F F F"
C       -6.66552543       2.65666670       0.70850189      -6.47387810      11.12531626       4.92045259
C      -10.00256123      -9.57272574      -0.57311570     -22.07523013     -37.39621362      -1.12570998
C      -89.49925080    -118.50693251     133.14583839    -261.44717155    -358.59442266     400.21790130
H       33.96976134    -112.36060057     -44.35739049       9.03089875     -28.28561071     -11.02386753
C        2.88026784       7.07921293      -0.55823146       4.60991701      16.92994195       0.11094395
H       28.02275249     -88.85770469      -8.48547531       5.86771030     -17.65419640      -1.56344060
C       40.03072552       5.40285583       2.35346354     163.01957478       3.40932951      10.89179270
H      -41.39672550       6.86376276      28.41891900      -9.47568749       1.49506426       6.96647756
C       87.28740592     125.76396236    -133.33085685     268.00473526     373.18327895    -398.03029548
H     -425.53156525      34.86241630     -26.41374510    -143.20991381      10.28824510      -8.82551003
H      -36.88379108      98.18767902       2.22080938      -6.75694274      18.96664052       0.51833177
H      -10.43914038       8.39645162      -6.95983235      -1.60098339       2.43700518      -2.26287847
O        8.71931460       7.81802999      -0.62712623      -2.74767904       7.01173367      -1.85714851
H       20.33663830     -15.84744515       4.76663978       1.60130465      -4.63894481       1.00735822
14
Properties=species:S:1:pos:R:3:momenta:R:3 Energy:=T 18.9413423=T pbc="F F F"
C       -7.27194420       3.56124874       1.14517229      -8.30138694      10.19629201       5.58455133
C      -11.83734567     -12.70946131      -0.67160848     -22.06137624     -37.60968972      -1.14376916
C     -110.77209454    -147.69016287     165.70919705    -258.85554348    -355.04597421     396.19035975
H       42.70744313    -139.78638822     -55.05354995       8.92358580     -27.99909581     -10.92281688
C        3.03903563       8.45966410      -0.54367660       1.09073215      17.01269734       0.18953207
H       33.72620608    -105.97016684     -10.00304118       5.82823869     -17.47310706      -1.54028330
C       53.26671179       5.67987560       3.23892579     160.91275161       3.38007208      10.71612743
H      -50.56944693       8.31625988      35.14722154      -9.37240245       1.48225264       6.86638166
C      109.09375792     156.12871554    -165.72095510     265.37555159     369.42854868    -394.08540531
H     -564.38745258      44.85537934     -34.97307445    -141.79395722      10.21383296      -8.74966164
H      -43.45287850     116.56640962       2.72339757      -6.71610071      18.75852135       0.51849992
H      -12.27302007      10.98369449      -9.43594309      -2.01690162       2.69590355      -2.67682529
O        8.84447895       8.29113018      -0.74447870       3.84423426       7.54907100      -1.96688776
H       21.77095912     -20.27295125       5.72814449       1.46895924      -4.54632482       0.99319898
14
Properties=species:S:1:pos:R:3:momenta:R:3 Energy:=T 18.9413423=T pbc="F F F"
C       -7.27570596       3.55748619       1.14470103      -8.46469852      10.41403122       5.31307735
C      -11.82758040     -12.70364140      -0.66320633     -22.08692295     -37.99509402      -1.04623309
C     -110.77037457    -147.68159999     165.71819724    -258.86270565    -354.94239620     396.31004300
H       42.70714657    -139.79270004     -55.03926792       8.91630479     -28.02666649     -10.90899379
C        3.04404135       8.46794869      -0.54845020       0.93873682      17.18876278       0.03271070
H       33.72472553    -105.99328399     -10.02880397       5.81955989     -17.51819879      -1.59404007
C       53.28053686       5.67865998       3.23869614     161.24806136       3.37717837      10.83151649
H      -50.52831282       8.29772171      35.16133963      -9.32802158       1.47370064       6.88209933
C      109.10830723     156.13554736    -165.72705737     265.49270640     369.52048688    -394.23731760
H     -564.37460743      44.88179608     -34.97929275    -141.77636914      10.25530645      -8.75977123
H      -43.42238883     116.59332602       2.72323896      -6.66391938      18.79984136       0.50406573
H      -12.25921872      10.99189144      -9.44852202      -1.71180553       2.58596366      -2.38316926
O        8.81193237       8.27407631      -0.74674010       3.30947973       7.39353072      -1.99678470
H       21.74204190     -20.29101274       5.70609501       1.42035388      -4.47875268       0.93632973
14
Properties=species:S:1:pos:R:3:momenta:R:3 Energy:=T 18.9413423=T pbc="F F F"
C       -8.04522945       4.36127709       1.57989709     -10.50317157       9.09201582       5.50058966
C      -13.60909020     -15.77176428      -0.74728837     -21.40597479     -36.82309975      -0.96103963
C     -131.83112439    -176.56348374     197.96708311    -256.18850075    -351.44075224     392.37735854
H       51.37206062    -166.96477684     -65.61755243       8.86631338     -27.74594043     -10.80290312
C        3.04061724       9.89441602      -0.55344076      -3.53456802      18.41787106       0.05138158
H       39.38241551    -122.98259469     -11.57654023       5.79415383     -17.35078193      -1.56486082
C       66.39556656       5.95619982       4.11973294     159.48427444       3.36835745      10.73404134
H      -59.57117011       9.70973602      41.83646588      -9.23267068       1.42196953       6.82250622
C      130.71438183     186.20347154    -197.81059045     262.90946891     365.86225983    -390.36766446
H     -701.84105478      54.83559274     -43.47069618    -140.38038256      10.17875487      -8.64734313
H      -49.86627179     134.82324658       3.21303998      -6.58366109      18.63748581       0.51099245
H      -13.79903871      13.44150667     -11.59689383      -1.72952748       2.56278703      -2.33321255
O        9.12281442       8.72575035      -0.87474208       9.67197271       6.57309950      -2.30674649
H       23.10008953     -24.59099275       6.59350784       1.43135951      -4.43773414       0.91328066
14
Properties=species:S:1:pos:R:3:momenta:R:3 Energy:=T 18.9413423=T pbc="F F F"
C       -7.91018648       4.41996040       1.57712029      -8.81433088       9.77254144       5.49494592
C      -13.48014032     -15.71438854      -0.74792372     -19.93124264     -36.12916649      -1.05130941
C     -131.70356055    -176.50908393     197.96604064    -254.74311318    -350.77694147     392.38880886
H       51.49312646    -166.90917761     -65.61123868       8.95552255     -27.69081667     -10.78970764
C        3.17236455       9.95178914      -0.54841563      -2.07120980      19.43474134       0.26102706
H       39.52063249    -122.91023193     -11.57106046       5.91750035     -17.27264246      -1.55991042
C       66.53805169       6.01932689       4.11535673     161.37037580       4.21356874      10.65862322
H      -59.46872613       9.81581164      41.83637116      -9.13340046       1.57133954       6.81516819
C      130.84581394     186.27069649    -197.81090544     264.50171372     366.73666918    -390.46544423
H     -701.71184722      54.91230724     -43.48367914    -140.23886417      10.24551659      -8.67836843
H      -49.75070589     134.90091573       3.21532818      -6.45941155      18.70395254       0.50856099
H      -13.63828186      13.49050792     -11.62580743      -1.54364915       2.62221341      -2.36269273
O        8.49751602       8.44593324      -0.87105831      -0.49652657       1.59222009      -2.28348486
H       22.45561315     -24.87494738       6.61473088       0.70457948      -4.61312434       0.91900157
14
Properties=species:S:1:pos:R:3:momenta:R:3 Energy:=T 18.9413423=T pbc="F F F"
C       -8.71721847       5.15774187       2.03827364      -9.72214838       8.92611754       5.52835499
C      -15.08267917     -18.60920282      -0.83591961     -19.46712870     -35.22139136      -1.12285728
C     -152.43196415    -205.05552307     229.89545918    -252.20079026    -347.40933604     388.48206686
H       60.18022525    -193.75454574     -76.07441743       8.86486148     -27.42902676     -10.67219862
C        2.71047769      11.64682703      -0.51829694      -5.61032311      20.69586328       0.30554035
H       45.26607935    -139.65379256     -13.08619286       5.86990848     -17.10225554      -1.56018830
C       79.67398986       6.35629040       4.97982078     159.81791996       4.03024752      10.47766953
H      -68.31854723      11.34071144      48.44689481      -9.02121524       1.55532667       6.74554455
C      152.36608144     216.11360631    -229.58923580     261.87587610     363.13193168    -386.78577230
H     -837.69301001      64.84867061     -51.89750056    -138.84871658      10.13647325      -8.58960235
H      -56.00405452     153.03653469       3.72344018      -6.37187429      18.54058464       0.51185397
H      -15.27034217      16.05900145     -14.02386657      -1.67164152       2.61790008      -2.45565244
O        8.75026359       8.47315396      -1.02246724       4.08954041       0.49322806      -2.33704256
H       23.11431515     -29.28624624       7.49873645       0.66040837      -4.51518533       0.89560567
14
Properties=species:S:1:pos:R:3:momenta:R:3 Energy:=T 18.9413423=T pbc="F F F"
C       -8.73239296       5.15574780       2.05021327     -10.02930640       9.10894572       5.77891707
C      -15.09726123     -18.61626199      -0.83407896     -19.72613952     -35.26743837      -1.09051582
C     -152.44259473    -205.05421816     229.90068000    -252.30624210    -347.37329093     388.56566273
H       60.17204872    -193.77391746     -76.07918076       8.87292865     -27.43392503     -10.69146319
C        2.69971159      11.65064565      -0.50991915      -5.77151665      20.70737067       0.52408355
H       45.25901528    -139.66229871     -13.10125907       5.88633992     -17.10789329      -1.57146828
C       79.66430286       6.35813131       4.98787893     159.76599567       4.13135432      10.60737122
H      -68.32383297      11.31939469      48.40467886      -9.05115926       1.53782691       6.68945438
C      152.35741779     216.10841125    -229.58529397     261.72518267     363.02593242    -386.68858877
H     -837.72285378      64.85989213     -51.90945512    -138.87745994      10.17775440      -8.60713967
H      -56.03033081     153.02925466       3.70280279      -6.42143792      18.50672640       0.47198764
H      -15.28076746      16.06704907     -14.02459366      -1.69501493       2.63912522      -2.44247035
O        8.80798451       8.48981647      -1.03084707       5.02938358       0.67034127      -2.64885028
H       23.19534142     -29.26370789       7.50116350       0.75236303      -4.47047618       0.91758274
14
Properties=species:S:1:pos:R:3:momenta:R:3 Energy:=T 18.9413423=T pbc="F F F"
C       -8.72662544       5.14882181       2.03702136      -9.94117087       8.81962342       5.54426030
C      -15.08007173     -18.61265981      -0.83038097     -19.48389898     -35.22964352      -1.04047671
C     -152.43721656    -205.05150942     229.90127854    -252.24565581    -347.31302880     388.61469786
H       60.18147078    -193.76343270     -76.06528748       8.87918151     -27.44334866     -10.64328621
C        2.71420447      11.64515535      -0.50855522      -5.51892712      20.58952218       0.55998175
H       45.25799969    -139.64671139     -13.06380841       5.85671426     -17.06950485      -1.53517792
C       79.67749902       6.36396861       4.97833147     159.86813832       4.17758207      10.45084445
H      -68.30445429      11.33877017      48.43929928      -9.02520244       1.55798152       6.73764405
C      152.37357083     216.11501242    -229.58720663     261.98960362     363.13129313    -386.64428214
H     -837.70501603      64.84810506     -51.87566248    -138.86719873      10.14576433      -8.56471074
H      -56.00809299     153.03329909       3.72035922      -6.38877497      18.53179521       0.53601090
H      -15.26626364      16.08058902     -14.04095727      -1.66382113       2.62979082      -2.44680065
O        8.74584906       8.46884434      -1.03007951       4.08213310       0.34682567      -2.53632071
H       23.12946139     -29.30836893       7.51337419       0.68432474      -4.53870801       0.93633975
14
Properties=species:S:1:pos:R:3:momenta:R:3 Energy:=T 18.9413423=T pbc="F F F"
C       -9.54096666       5.85528789       2.49070873      -9.69381741       8.88875561       5.53282355
C      -16.66855326     -21.48132516      -0.91256382     -19.40204776     -35.00582139      -1.00614812
C     -172.96383445    -233.31642199     261.52755441    -249.79235908    -343.88697176     384.73445928
H       68.80620314    -220.37163928     -86.38833640       8.81579521     -27.16083802     -10.53380971
C        2.26336869      13.32501562      -0.46510290      -4.75371250      19.16451168       0.47934201
H       50.94687377    -156.20572279     -14.54331738       5.83408655     -16.91123502      -1.50597507
C       92.68658811       6.70838197       5.83024727     158.27353606       4.22990907      10.36178533
H      -77.05937951      12.85059039      54.95753935      -8.95155296       1.51899398       6.63779716
C      173.70024937     245.66128087    -261.05615897     259.49782889     359.54156774    -382.97542555
H     -972.32097050      74.69115016     -60.19338088    -137.43351693      10.04097640      -8.48462387
H      -62.21058134     170.99271002       4.21426974      -6.33778161      18.32419979       0.47121791
H      -16.87141270      18.63402791     -16.41325113      -1.65061204       2.65055202      -2.44130116
O        8.99751468       8.49372719      -1.18474530       3.23442357       1.45024656      -2.42717557
H       23.80128489     -33.69001047       8.41865851       0.72799771      -4.48801402       0.94733382
14
Properties=species:S:1:pos:R:3:momenta:R:3 Energy:=T 18.9413423=T pbc="F F F"
C       -9.45646329       5.89744189       2.48480431      -8.90092268       9.16779127       5.45267510
C      -16.58342300     -21.45448367      -0.91547629     -18.26388587     -34.62623971      -1.04389625
C     -172.88533215    -233.28649947     261.52944623    -248.81977969    -343.56540270     384.85254779
H       68.88892544    -220.34019496     -86.35553795       8.89910190     -27.13393645     -10.49499323
C        2.33677934      13.35568901      -0.46823214      -4.65961625      20.90943265       0.46042276
H       51.00889337    -156.20207429     -14.53862850       5.86773856     -16.91021931      -1.50413318
C       92.77146357       6.72891752       5.82730810     159.30198937       4.41795255      10.23111802
H      -76.97397027      12.89014617      54.96708231      -8.84637955       1.57090922       6.66647653
C      173.76587121     245.69919792    -261.05529492     260.27894142     359.94876547    -382.91268744
H     -972.27424789      74.73200436     -60.18413787    -137.43663321      10.09062303      -8.48042887
H      -62.11142375     171.04029563       4.22868328      -6.21402222      18.40175293       0.53479866
H      -16.77444793      18.65472063     -16.39218840      -1.52076499       2.62744164      -2.39946317
O        8.63605722       8.34939344      -1.17589287      -1.78844448      -1.92473329      -2.33656329
H       23.42917645     -33.84266580       8.42282223       0.31835223      -4.61967454       0.91314232
14
Properties=species:S:1:pos:R:3:momenta:R:3 Energy:=T 18.9413423=T pbc="F F F"
C      -10.18107739       6.64024846       2.92853112      -9.52095383       8.48895149       5.59225272
C      -18.06993347     -24.27537270      -0.99578149     -17.98965982     -34.14972504      -0.94756295
C     -193.12826688    -261.24566040     292.84626200    -246.31680327    -340.28295687     381.02956554
H       77.53262064    -246.64348998     -96.53560890       8.82493480     -26.85948565     -10.39885373
C        1.94952115      15.06506650      -0.43242885      -5.26652629      21.94525869       0.47942571
H       56.68743964    -172.58814156     -16.00122427       5.78886696     -16.73718481      -1.49687978
C      105.72894904       7.09153260       6.65274370     157.62597323       4.41605459       9.99661941
H      -85.57120789      14.41526770      61.42650266      -8.78834821       1.58147454       6.59332023
C      194.94483632     274.99344847    -292.22046445     257.68293919     356.49666088    -379.16492653
H    -1105.52859421      84.52702530     -68.40548304    -136.05000686      10.00549746      -8.38931047
H      -68.15457924     188.90013280       4.74916689      -6.19613889      18.22505821       0.51132595
H      -18.24962785      21.19979647     -18.73131684      -1.54672472       2.61607190      -2.45221212
O        8.52625372       8.22731376      -1.32774845      -0.70230139      -2.83956422      -2.61847427
H       23.74356493     -38.31582264       9.30886004       0.32081660      -4.57428972       0.90632319
14
Properties=species:S:1:pos:R:3:momenta:R:3 Energy:=T 18.9413423=T pbc="F F F"
C      -11.01404831       7.29942052       3.40018192      -9.52227306       8.42288683       5.64108758
C      -19.52484477     -27.04283115      -1.06541002     -17.70219523     -33.71332501      -0.82591320
C     -213.17225809    -288.93302450     323.85376575    -243.92545462    -336.89510925     377.31831954
H       86.09600831    -272.70065507    -106.64659927       8.73862340     -26.61590563     -10.33769299
C        1.48281440      16.93798827      -0.39405892      -6.56798555      23.14566988       0.68984447
H       62.32529870    -188.83122731     -17.45020270       5.78324235     -16.59835546      -1.46528454
C      118.55693724       7.45280358       7.46240539     156.12216130       4.35530013       9.92299978
H      -94.09927504      15.94927273      67.81319716      -8.72274537       1.56909436       6.53494670
C      215.91529497     304.00424012    -323.08007954     255.16084228     352.93444757    -375.51908039
H    -1237.46193199      94.20447875     -76.53554832    -134.72269967       9.87800323      -8.30714705
H      -74.17270643     206.57619700       5.24175674      -6.16196603      18.04357505       0.50423658
H      -19.79954733      23.76455848     -21.16815043      -1.56543462       2.62840952      -2.47737835
O        8.54767598       8.00013806      -1.50122007       0.49535261      -4.35518557      -2.86540956
H       24.05311804     -42.77823878      10.19499237       0.31963171      -4.57328294       0.90957577
14
Properties=species:S:1:pos:R:3:momenta:R:3 Energy:=T 18.9413423=T pbc="F F F"
C      -11.74553528       8.01230354       3.84495586      -8.89232729       8.65856855       5.38257425
C      -20.96650651     -29.78624536      -1.12959536     -17.50061410     -33.42465933      -0.72549038
C     -233.02732940    -316.34836410     354.55631396    -241.66143184    -333.58893283     373.55176279
H       94.55905732    -298.51311106    -116.66871911       8.64285281     -26.35469761     -10.22796005
C        0.87914041      18.85081501      -0.32364523      -7.29825263      23.28061282       0.89873558
H       67.93327555    -204.92466338     -18.86802310       5.75316893     -16.43944394      -1.46465627
C      131.26481957       7.81556727       8.26380279     154.62916154       4.50669153       9.72769983
H     -102.54673323      17.45472928      74.16345579      -8.61881733       1.49865344       6.49676389
C      236.68396661     332.72907241    -353.63653043     252.68961419     349.51202847    -371.80752162
H    -1368.09300369     103.78428230     -84.58637264    -133.39771492       9.77418809      -8.23050803
H      -80.13563380     224.06879556       5.73635982      -6.08905004      17.86490949       0.48943186
H      -21.27625109      26.33939599     -23.57887274      -1.51245994       2.62932082      -2.47404630
O        8.59433467       7.68863230      -1.67204309       0.73291517      -5.02540020      -2.63466079
H       24.36671357     -47.20713312      11.09199804       0.32567970      -4.53163234       0.92522300
14
Properties=species:S:1:pos:R:3:momenta:R:3 Energy:=T 18.9413423=T pbc="F F F"
C      -12.47207230       8.72030489       4.28264908      -8.88470761       8.62828473       5.26146478
C      -22.39347804     -32.50859908      -1.18776828     -17.34692076     -33.14335148      -0.72666615
C     -252.69368374    -343.49779187     384.95799780    -239.34275907    -330.31865077     369.89885022
H      102.95744044    -324.05916245    -126.59112184       8.59697065     -26.08855265     -10.13163745
C        0.28976549      20.74724270      -0.24732699      -7.10207786      23.12127787       1.03350923
H       73.51729214    -220.83559215     -20.29650031       5.71308439     -16.22624529      -1.45652630
C      143.84577559       8.18261386       9.05055348     153.10432053       4.46721389       9.53083291
H     -110.91982543      18.90559823      80.44301601      -8.56021664       1.46898270       6.41317607
C      257.24865797     361.16951850    -383.89448371     250.22297874     346.05611394    -368.10563659
H    -1497.44924805     113.27652770     -92.56518037    -132.09377623       9.69978139      -8.14462354
H      -86.04379409     241.39319595       6.19158382      -6.02904097      17.68891792       0.44686518
H      -22.73904545      28.89349740     -25.99422850      -1.50196655       2.60642433      -2.47811713
O        8.64255400       7.37986118      -1.83720993       0.83025485      -4.95217333      -2.71782995
H       24.67912363     -51.58772223      11.98723513       0.30849021      -4.45943389       0.91909080
14
Properties=species:S:1:pos:R:3:momenta:R:3 Energy:=T 18.9413423=T pbc="F F F"
C      -13.18728007       9.41420734       4.71138436      -8.68853595       8.54619004       5.17263506
C      -23.80583617     -35.20301953      -1.24695507     -17.12107554     -32.71193046      -0.68743205
C     -272.16993840    -370.38208136     415.05576839    -236.94233839    -327.17696888     366.18320278
H      111.28530085    -349.33991097    -136.40096729       8.51828988     -25.81309722     -10.01664602