9
Properties=species:S:1:pos:R:3 Energy:=T 39.5935911=T pbc="F F F"
C       -6.86386640      -0.69209470      -0.13523965
O       -5.41236557      -0.70506803      -0.19354578
H       -7.21962550       0.28761238       0.19855636
H       -7.22288435      -1.50700194       0.50022062
H       -7.12318099      -0.87247055      -1.18997736
C       -4.68757981      -0.52213493       0.93282747
O       -3.50398420      -0.50909674       0.99294316
O       -5.64105405      -0.34495435       2.12412020
O       -5.13253636       0.01524460       3.13097100
9
Properties=species:S:1:pos:R:3 Energy:=T 39.5935911=T pbc="F F F"
C       -6.86386640      -0.69209470      -0.13523965
O       -5.41236557      -0.70506803      -0.19354578
H       -7.21962550       0.28761238       0.19855636
H       -7.22288435      -1.50700194       0.50022062
H       -7.12318099      -0.87247055      -1.18997736
C       -4.68757981      -0.52213493       0.93282747
O       -3.50398420      -0.50909674       0.99294316
O       -5.64105405      -0.34495435       2.12412020
O       -5.17338111       0.18766286       3.07263640
9
Properties=species:S:1:pos:R:3 Energy:=T 39.5935911=T pbc="F F F"
C       -6.86386640      -0.69209470      -0.13523965
O       -5.41236557      -0.70506803      -0.19354578
H       -7.21962550       0.28761238       0.19855636
H       -7.22288435      -1.50700194       0.50022062
H       -7.12318099      -0.87247055      -1.18997736
C       -4.68757981      -0.52213493       0.93282747
O       -3.50398420      -0.50909674       0.99294316
O       -5.64105405      -0.34495435       2.12412020
O       -5.23799280       0.34567376       2.99742227
9
Properties=species:S:1:pos:R:3 Energy:=T 39.5935911=T pbc="F F F"
C       -6.86386640      -0.69209470      -0.13523965
O       -5.41236557      -0.70506803      -0.19354578
H       -7.21962550       0.28761238       0.19855636
H       -7.22288435      -1.50700194       0.50022062
H       -7.12318099      -0.87247055      -1.18997736
C       -4.68757981      -0.52213493       0.93282747
O       -3.50398420      -0.50909674       0.99294316
O       -5.64105405      -0.34495435       2.12412020
O       -5.32440823       0.48447619       2.90761396
9
Properties=species:S:1:pos:R:3 Energy:=T 39.5935911=T pbc="F F F"
C       -6.86427490      -0.69239544      -0.13556459
O       -5.41236557      -0.70506803      -0.19354578
H       -7.21934160       0.28731818       0.19891484
H       -7.22275499      -1.50661067       0.50051711
H       -7.12330937      -0.87223579      -1.18974050
C       -4.68757981      -0.52213493       0.93282747
O       -3.50450492      -0.50962538       0.99293766
O       -5.64105405      -0.34495435       2.12412020
O       -5.43000173       0.59985273       2.80594024
9
Properties=species:S:1:pos:R:3 Energy:=T 39.5935911=T pbc="F F F"
C       -6.86431475      -0.69357708      -0.13573389
O       -5.41236557      -0.70506803      -0.19354578
H       -7.21518859       0.28358139       0.20673832
H       -7.22152786      -1.50210544       0.50770298
H       -7.12731867      -0.86868720      -1.19023963
C       -4.68757981      -0.52213493       0.93282747
O       -3.50483556      -0.52678310       0.99801392
O       -5.64105405      -0.34495435       2.12412020
O       -5.55156488       0.68829772       2.69549042
9
Properties=species:S:1:pos:R:3 Energy:=T 39.5935911=T pbc="F F F"
C       -6.86431475      -0.69357708      -0.13573389
O       -5.41236557      -0.70506803      -0.19354578
H       -7.21518859       0.28358139       0.20673832
H       -7.22152786      -1.50210544       0.50770298
H       -7.12731867      -0.86868720      -1.19023963
C       -4.68757981      -0.52213493       0.93282747
O       -3.50483556      -0.52678310       0.99801392
O       -5.64105405      -0.34495435       2.12412020
O       -5.68540405       0.74712379       2.57962046
9
Properties=species:S:1:pos:R:3 Energy:=T 39.5935911=T pbc="F F F"
C       -6.86537291      -0.69062139      -0.13305092
O       -5.41236557      -0.70506803      -0.19354578
H       -7.21731274       0.28921618       0.20777715
H       -7.22068245      -1.50459300       0.50599268
H       -7.12628845      -0.86847711      -1.18579067
C       -4.68757981      -0.52213493       0.93282747
O       -3.50626349      -0.53582700       1.00939688
O       -5.64105405      -0.34495435       2.12412020
O       -5.82745261       0.77454355       2.46185101
9
Properties=species:S:1:pos:R:3 Energy:=T 39.5935911=T pbc="F F F"
C       -6.86531532      -0.69074562      -0.13327021
O       -5.41236557      -0.70506803      -0.19354578
H       -7.21718506       0.28895284       0.20779437
H       -7.22064480      -1.50426828       0.50610126
H       -7.12643786      -0.86833925      -1.18601510
C       -4.68757981      -0.52213493       0.93282747
O       -3.50627948      -0.53626828       1.00996309
O       -5.64105405      -0.34495435       2.12412020
O       -5.97339447       0.76972386       2.34576044
9
Properties=species:S:1:pos:R:3 Energy:=T 39.5935911=T pbc="F F F"
C       -6.86621841      -0.69299495      -0.13919764
O       -5.41236557      -0.70506803      -0.19354578
H       -7.21837992       0.28641511       0.20341293
H       -7.22060411      -1.50110989       0.50701975
H       -7.12773921      -0.86802460      -1.19217922
C       -4.68757981      -0.52213493       0.93282747
O       -3.50809134      -0.54345453       1.02618863
O       -5.64105405      -0.34495435       2.12412020
O       -6.11879527       0.73281118       2.23487610
9
Properties=species:S:1:pos:R:3 Energy:=T 39.5935911=T pbc="F F F"
C       -6.86477230      -0.70299572      -0.17260694
O       -5.41236557      -0.70506803      -0.19354578
H       -7.23564267       0.28173784       0.13335874
H       -7.22995113      -1.49520467       0.48509551
H       -7.09578168      -0.90870122      -1.22744972
C       -4.68757981      -0.52213493       0.93282747
O       -3.51011286      -0.56716894       1.03753647
O       -5.64105405      -0.34495435       2.12412020
O       -6.25923709       0.66492706       2.13256715
9
Properties=species:S:1:pos:R:3 Energy:=T 39.5935911=T pbc="F F F"
C       -6.86456778      -0.72365635      -0.20902005
O       -5.41236557      -0.70506803      -0.19354578
H       -7.25213274       0.27239769       0.03775594
H       -7.24059869      -1.49146065       0.47153983
H       -7.05880434      -0.98189778      -1.26212762
C       -4.68757981      -0.52213493       0.93282747
O       -3.50942541      -0.53814487       1.03484605
O       -5.64105405      -0.34495435       2.12412020
O       -6.39045266       0.56813413       2.04194221
9
Properties=species:S:1:pos:R:3 Energy:=T 39.5935911=T pbc="F F F"
C       -6.85924663      -0.76362022      -0.25003211
O       -5.41236557      -0.70506803      -0.19354578
H       -7.26889208       0.24094235      -0.09271491
H       -7.25156686      -1.48947951       0.46597570
H       -7.00373046      -1.09396076      -1.29057185
C       -4.68757981      -0.52213493       0.93282747
O       -3.51004671      -0.55100982       1.03620066
O       -5.64105405      -0.34495435       2.12412020
O       -6.50845507       0.44537341       1.96575485
9
Properties=species:S:1:pos:R:3 Energy:=T 39.5935911=T pbc="F F F"
C       -6.85650651      -0.80161546      -0.28950049
O       -5.41236557      -0.70506803      -0.19354578
H       -7.28647954       0.20488149      -0.20270329
H       -7.26036822      -1.49859028       0.44985282
H       -6.95864249      -1.19033268      -1.31527427
C       -4.68757981      -0.52213493       0.93282747
O       -3.51000153      -0.51938064       1.03598046
O       -5.64105405      -0.34495435       2.12412020
O       -6.60965887       0.30037490       1.90632000
9
Properties=species:S:1:pos:R:3 Energy:=T 39.5935911=T pbc="F F F"
C       -6.84517537      -0.84933333      -0.33698751
O       -5.41236557      -0.70506803      -0.19354578
H       -7.30321201       0.14603075      -0.28836618
H       -7.25918918      -1.53245788       0.40816214
H       -6.89852722      -1.27000468      -1.35300780
C       -4.68757981      -0.52213493       0.93282747
O       -3.51025617      -0.51993955       1.03541166
O       -5.64105405      -0.34495435       2.12412020
O       -6.69098905       0.13754432       1.86544356
9
Properties=species:S:1:pos:R:3 Energy:=T 39.5935911=T pbc="F F F"
C       -6.83505143      -0.89777041      -0.37709398
O       -5.41236557      -0.70506803      -0.19354578
H       -7.32452749       0.08352840      -0.33375256
H       -7.24926522      -1.60836296       0.34318138
H       -6.84173810      -1.30415909      -1.40218241
C       -4.68757981      -0.52213493       0.93282747
O       -3.51069284      -0.48499029       1.03086605
O       -5.64105405      -0.34495435       2.12412020
O       -6.74997441      -0.03817080       1.84436753
9
Properties=species:S:1:pos:R:3 Energy:=T 39.5935911=T pbc="F F F"
C       -6.51449913      -1.65370242      -0.24711259
O       -5.41236557      -0.70506803      -0.19354578
H       -7.43752934      -1.08188647      -0.09256262
H       -6.39402899      -2.45517865       0.48478912
H       -6.43791675      -2.03686960      -1.27517478
C       -4.68757981      -0.52213493       0.93282747
O       -3.52288398      -0.34756717       1.03984139
O       -5.64105405      -0.34495435       2.12412020
O       -6.78482273      -0.22143146       1.84373231
9
Properties=species:S:1:pos:R:3 Energy:=T 39.5935911=T pbc="F F F"
C       -6.51258773      -1.65877463      -0.25852605
O       -5.41236557      -0.70506803      -0.19354578
H       -7.44387854      -1.09645016      -0.10832307
H       -6.40293553      -2.45180698       0.48320574
H       -6.43117160      -2.03829813      -1.28697461
C       -4.68757981      -0.52213493       0.93282747
O       -3.52649971      -0.33367596       1.05335303
O       -5.64105405      -0.34495435       2.12412020
O       -6.79447515      -0.40666937       1.86355718
9
Properties=species:S:1:pos:R:3 Energy:=T 39.5935911=T pbc="F F F"
C       -6.49345191      -1.66984936      -0.30215852
O       -5.41236557      -0.70506803      -0.19354578
H       -7.42981651      -1.11172239      -0.17549906
H       -6.40362414      -2.47115591       0.43196373
H       -6.37587831      -2.03979142      -1.32977512
C       -4.68757981      -0.52213493       0.93282747
O       -3.53260864      -0.28971422       1.03622020
O       -5.64105405      -0.34495435       2.12412020
O       -6.77863839      -0.58825617       1.90323978
9
Properties=species:S:1:pos:R:3 Energy:=T 39.5935911=T pbc="F F F"
C       -6.49408396      -1.66992841      -0.30246632
O       -5.41236557      -0.70506803      -0.19354578
H       -7.43024168      -1.11171238      -0.17561652
H       -6.40324866      -2.47194827       0.43186184
H       -6.37549138      -2.03967543      -1.32995205
C       -4.68757981      -0.52213493       0.93282747
O       -3.53264547      -0.28974735       1.03629777
O       -5.64105405      -0.34495435       2.12412020
O       -6.73779364      -0.76067443       1.96157438
9
Properties=species:S:1:pos:R:3 Energy:=T 39.5935911=T pbc="F F F"
C       -6.48468040      -1.67716535      -0.33078386
O       -5.41236557      -0.70506803      -0.19354578
H       -7.42689834      -1.15037976      -0.13243288
H       -6.35329960      -2.53085250       0.33773513
H       -6.38740616      -1.96574749      -1.38889270
C       -4.68757981      -0.52213493       0.93282747
O       -3.53880875      -0.25566928       1.02458705
O       -5.64105405      -0.34495435       2.12412020
O       -6.67318195      -0.91868533       2.03678851
9
Properties=species:S:1:pos:R:3 Energy:=T 39.5935911=T pbc="F F F"
C       -6.50480663      -1.66445520      -0.27610103
O       -5.41236557      -0.70506803      -0.19354578
H       -7.42810814      -1.15841021       0.03123046
H       -6.30792030      -2.55452500       0.32799675
H       -6.50654974      -1.90337139      -1.34831057
C       -4.68757981      -0.52213493       0.93282747
O       -3.53372138      -0.28283389       1.03446404
O       -5.64105405      -0.34495435       2.12412020
O       -6.58676652      -1.05748776       2.12659683
9
Properties=species:S:1:pos:R:3 Energy:=T 39.5935911=T pbc="F F F"
C       -6.59214648      -1.55340970      -0.23127085
O       -5.41236557      -0.70506803      -0.19354578
H       -7.42159413      -1.05896400       0.28880444
H       -6.36240254      -2.53177011       0.20235890
H       -6.77774026      -1.61673199      -1.31159838
C       -4.68757981      -0.52213493       0.93282747
O       -3.53037386      -0.29206698       1.01882538
O       -5.64105405      -0.34495435       2.12412020
O       -6.48117302      -1.17286430       2.22827054
9
Properties=species:S:1:pos:R:3 Energy:=T 39.5935911=T pbc="F F F"
C       -6.86521789      -0.72971720      -0.19260653
O       -5.41236557      -0.70506803      -0.19354578
H       -7.27682374       0.07584671       0.41985840
H       -7.20178128      -1.71420686       0.15205469
H       -7.07751838      -0.57466649      -1.25996130
C       -4.68757981      -0.52213493       0.93282747
O       -3.51148390      -0.43291703       1.02358302
O       -5.64105405      -0.34495435       2.12412020
O       -6.35960987      -1.26130929       2.33872036
9
Properties=species:S:1:pos:R:3 Energy:=T 39.5935911=T pbc="F F F"
C       -6.86332943      -0.72741809      -0.18438189
O       -5.41236557      -0.70506803      -0.19354578
H       -7.27471365       0.08305907       0.42270342
H       -7.19128070      -1.71315843       0.16267552
H       -7.08420188      -0.58187597      -1.25147797
C       -4.68757981      -0.52213493       0.93282747
O       -3.50971212      -0.43694804       1.00534105
O       -5.64105405      -0.34495435       2.12412020
O       -6.22577070      -1.32013536       2.45459032
9
Properties=species:S:1:pos:R:3 Energy:=T 39.5935911=T pbc="F F F"
C       -6.86306557      -0.72778890      -0.18336204
O       -5.41236557      -0.70506803      -0.19354578
H       -7.27446942       0.08299183       0.42279515
H       -7.19146570      -1.71305745       0.16327329
H       -7.08456596      -0.58195164      -1.25169528
C       -4.68757981      -0.52213493       0.93282747
O       -3.50959160      -0.43706086       1.00518653
O       -5.64105405      -0.34495435       2.12412020
O       -6.08372214      -1.34755512       2.57235977
9
Properties=species:S:1:pos:R:3 Energy:=T 39.5935911=T pbc="F F F"
C       -6.86284375      -0.72810048      -0.18244646
O       -5.41236557      -0.70506803      -0.19354578
H       -7.27423468       0.08297648       0.42295127
H       -7.19165509      -1.71299924       0.16382434
H       -7.08486734      -0.58211486      -1.25148923
C       -4.68757981      -0.52213493       0.93282747
O       -3.50935036      -0.43733311       1.00449536
O       -5.64105405      -0.34495435       2.12412020
O       -5.93778028      -1.34273543       2.68845034
9
Properties=species:S:1:pos:R:3 Energy:=T 39.5935911=T pbc="F F F"
C       -6.86606225      -0.73934832      -0.11764738
O       -5.41236557      -0.70506803      -0.19354578
H       -7.24984123       0.09717951       0.47396600
H       -7.17448540      -1.70901801       0.28846903
H       -7.14494949      -0.63649637      -1.17481261
C       -4.68757981      -0.52213493       0.93282747
O       -3.50696267      -0.46275611       0.99974723
O       -5.64105405      -0.34495435       2.12412020
O       -5.79237948      -1.30582275       2.79933468
9
Properties=species:S:1:pos:R:3 Energy:=T 39.5935911=T pbc="F F F"
C       -6.86564517      -0.73943471      -0.11714077
O       -5.41236557      -0.70506803      -0.19354578
H       -7.24982463       0.09693957       0.47372596
H       -7.17439341      -1.70860511       0.28855872
H       -7.14507042      -0.63680505      -1.17524329
C       -4.68757981      -0.52213493       0.93282747
O       -3.50655860      -0.46255752       0.99918892
O       -5.64105405      -0.34495435       2.12412020
O       -5.65193766      -1.23793863       2.90164363
9
Properties=species:S:1:pos:R:3 Energy:=T 39.5935911=T pbc="F F F"
C       -6.86382507      -0.73958044      -0.11654595
O       -5.41236557      -0.70506803      -0.19354578
H       -7.25008234       0.09619614       0.47174945
H       -7.17377047      -1.70605531       0.29097187
H       -7.14543360      -0.64113650      -1.17554888
C       -4.68757981      -0.52213493       0.93282747
O       -3.50560594      -0.46358832       0.98974220
O       -5.64105405      -0.34495435       2.12412020
O       -5.52072209      -1.14114570       2.99226858
9
Properties=species:S:1:pos:R:3 Energy:=T 39.5935911=T pbc="F F F"
C       -6.86382507      -0.73958044      -0.11654595
O       -5.41236557      -0.70506803      -0.19354578
H       -7.25008234       0.09619614       0.47174945
H       -7.17377047      -1.70605531       0.29097187
H       -7.14543360      -0.64113650      -1.17554888
C       -4.68757981      -0.52213493       0.93282747
O       -3.50560594      -0.46358832       0.98974220
O       -5.64105405      -0.34495435       2.12412020
O       -5.40271968      -1.01838498       3.06845593
9
Properties=species:S:1:pos:R:3 Energy:=T 39.5935911=T pbc="F F F"
C       -6.86382507      -0.73958044      -0.11654595
O       -5.41236557      -0.70506803      -0.19354578
H       -7.25008234       0.09619614       0.47174945
H       -7.17377047      -1.70605531       0.29097187
H       -7.14543360      -0.64113650      -1.17554888
C       -4.68757981      -0.52213493       0.93282747
O       -3.50560594      -0.46358832       0.98974220
O       -5.64105405      -0.34495435       2.12412020
O       -5.30151588      -0.87338647       3.12789078
9
Properties=species:S:1:pos:R:3 Energy:=T 39.5935911=T pbc="F F F"
C       -6.86418827      -0.73962219      -0.11665302
O       -5.41236557      -0.70506803      -0.19354578
H       -7.25010554       0.09656339       0.47170990
H       -7.17378875      -1.70628499       0.29128452
H       -7.14545915      -0.64139065      -1.17538665
C       -4.68757981      -0.52213493       0.93282747
O       -3.50524091      -0.46420408       0.98960903
O       -5.64105405      -0.34495435       2.12412020
O       -5.22018570      -0.71055589       3.16876722
9
Properties=species:S:1:pos:R:3 Energy:=T 39.5935911=T pbc="F F F"
C       -6.86436446      -0.73969074      -0.11651342
O       -5.41236557      -0.70506803      -0.19354578
H       -7.25010126       0.09688727       0.47164525
H       -7.17379996      -1.70642456       0.29154809
H       -7.14554770      -0.64163351      -1.17531962
C       -4.68757981      -0.52213493       0.93282747
O       -3.50519053      -0.46492266       0.98956246
O       -5.64105405      -0.34495435       2.12412020
O       -5.16120034      -0.53484077       3.18984325
9
Properties=species:S:1:pos:R:3 Energy:=T 39.5935911=T pbc="F F F"
C       -6.86514974      -0.74005440      -0.11109280
O       -5.41236557      -0.70506803      -0.19354578
H       -7.24742562       0.10499165       0.46728708
H       -7.17307586      -1.70585410       0.30363540
H       -7.15052394      -0.65356316      -1.16907126
C       -4.68757981      -0.52213493       0.93282747
O       -3.50403091      -0.49738554       0.99209420
O       -5.64105405      -0.34495435       2.12412020
O       -5.12635202      -0.35158011       3.19047848
9
Properties=species:S:1:pos:R:3 Energy:=T 39.5935911=T pbc="F F F"
C       -6.86514974      -0.74005440      -0.11109280
O       -5.41236557      -0.70506803      -0.19354578
H       -7.24742562       0.10499165       0.46728708
H       -7.17307586      -1.70585410       0.30363540
H       -7.15052394      -0.65356316      -1.16907126
C       -4.68757981      -0.52213493       0.93282747
O       -3.50403091      -0.49738554       0.99209420
O       -5.64105405      -0.34495435       2.12412020
O       -5.11669960      -0.16634220       3.17065361
